TITLE     = "Visualization of the solution"
VARIABLES = "x"
"y"
"Z Vorticity"
DATASETAUXDATA CFDA.ID1="Pressure"
DATASETAUXDATA CFDA.ID2="Temperature"
DATASETAUXDATA Common.PressureVar="7"
DATASETAUXDATA Common.TemperatureVar="8"
DATASETAUXDATA Common.UVar="4"
DATASETAUXDATA Common.VectorVarsAreVelocity="FALSE"
DATASETAUXDATA Common.VVar="5"
ZONE T="Zone"
 STRANDID=4256, SOLUTIONTIME=85.1
 Nodes=13336, Elements=26192, ZONETYPE=FEQuadrilateral
 DATAPACKING=POINT
 DT=(DOUBLE DOUBLE DOUBLE )
0.9990134239 -0.0313952601 -0.009618731595438077
0.9977809787 -0.0470541677 -0.013719028010573033
0.996057272 -0.062666647 -0.017434433074620267
0.9938442111 -0.0782173573 -0.020664936284688393
0.9911435843 -0.0936910286 -0.023328187035086455
0.9879583716 -0.1090725063 -0.02536631907401117
0.9842916131 -0.124346882 -0.026745574422306354
0.9801468253 -0.1394995152 -0.02745809518470679
0.9755281806 -0.1545156537 -0.027521870503486843
0.9704403877 -0.1693812161 -0.02698033251647195
0.9648882151 -0.184082061 -0.025896359092430297
0.9588773251 -0.1986043303 -0.02435213214441207
0.9524134994 -0.2129344939 -0.02244063769975495
0.9455031753 -0.2270589768 -0.020260217920590243
0.9381533265 -0.2409642785 -0.017909324839387356
0.9303709865 -0.2546369432 -0.015484921226687319
0.9221640229 -0.2680633067 -0.013078835920396058
0.9135403037 -0.2812297045 -0.010770999644734594
0.9045084715 -0.294122219 -0.008627901577486413
0.8950775266 -0.306726992 -0.0066993278053192684
0.8852565885 -0.3190300166 -0.005017681223159963
0.8750556111 -0.3310172557 -0.003599788898033283
0.8644843102 -0.3426751493 -0.0024480887017743454
0.8535534143 -0.3539901673 -0.0015524920429086184
0.8422734737 -0.3649495541 -0.0008908142711716517
0.8306558728 -0.3755412399 -0.0004326819783361359
0.8187119961 -0.3857539593 -0.00014295280263915133
0.806453526 -0.395577222 1.5457922372678207e-05
0.793892622 -0.4050014316 7.850314587384052e-05
0.7810416818 -0.4140179752 7.8748103381307e-05
0.7679134011 -0.4226189255 4.3830762536723345e-05
0.7545207143 -0.4307970404 -4.762888641558511e-06
0.7408769131 -0.4385458826 -5.2072654024744964e-05
0.7269952297 -0.4458593427 -8.93478155013896e-05
0.7128896713 -0.45273149 -0.0001130576130428423
0.6985738873 -0.4591571092 -0.00012336700344512904
0.6840623021 -0.4651308655 -0.00012268566145700894
0.6693689823 -0.470647931 -0.00011437406418535363
0.6545084715 -0.4757033884 -0.0001016508085490914
0.6394956112 -0.480292648 -8.72703407989962e-05
0.6243448853 -0.4844113587 -7.362784155491315e-05
0.6090716124 -0.4880555569 -6.240824849375673e-05
0.5936905742 -0.4912214576 -5.4669485067229684e-05
0.5782172084 -0.4939058422 -5.138461523196414e-05
0.562666595 -0.4961056112 -5.3361507507560316e-05
0.5470541716 -0.4978182613 -6.11324791275486e-05
0.5313953161 -0.4990418552 -7.47881861116878e-05
0.5157054067 -0.4997747837 -9.322293402052109e-05
0.5 -0.5000160335 -0.00011484015981184925
0.4842945933 -0.4997651278 -0.00013811890568360408
0.4686047137 -0.4990220367 -0.0001618971690513539
0.4529457986 -0.4977872371 -0.00018520424469663233
0.437333405 -0.4960618316 -0.0002083280472973889
0.4217827916 -0.4938473402 -0.00023129033347074612
0.4063093066 -0.4911457895 -0.0002545679060973194
0.3909283876 -0.4879598915 -0.0002758789863983105
0.3756551147 -0.4842926263 -0.00029522312918741495
0.3605043888 -0.4801476001 -0.00031205197295339215
0.3454914987 -0.4755287467 -0.0003266815315067853
0.3306309879 -0.4704406856 -0.00033971348078778996
0.3159376979 -0.464888364 -0.00035113787023149934
0.3014261127 -0.4588774144 -0.0003602608926668166
0.2871103883 -0.4524135589 -0.0003666569342454934
0.2730047107 -0.4455033242 -0.00037055043811904526
0.2591232061 -0.4381533264 -0.0003727128950595862
0.2454793006 -0.4303710162 -0.0003727418229609661
0.2320865989 -0.422163993 -0.0003716039747050162
0.2189583033 -0.4135403036 -0.0003694718686046844
0.2061073929 -0.4045085012 -0.0003665189805350383
0.1935465038 -0.3950774967 -0.0003629629814068322
0.1812880039 -0.3852565884 -0.0003586874530089601
0.1693440974 -0.3750554918 -0.00035330208503192573
0.1577264965 -0.36448431 -0.0003465993832952874
0.1464466006 -0.3535534142 -0.00033861512964652313
0.1355157048 -0.3422735928 -0.00032952736444595565
0.1249445006 -0.3306559025 -0.00031957182500376435
0.1147433966 -0.318711996 -0.0003089274244135465
0.1049225032 -0.3064534961 -0.000297676977988999
0.0954915136 -0.2938925921 -0.0002856852082263675
0.0864597112 -0.2810417115 -0.00027300422419541254
0.0778360367 -0.267913401 -0.00025941910644818045
0.0696289763 -0.2545207142 -0.00024532030312165304
0.0618466586 -0.2408767938 -0.00023066808702939395
0.0544967391 -0.2269951998 -0.00021536234109329616
0.0475864708 -0.2128895967 -0.0001992755247891831
0.0411226898 -0.1985739021 -0.00018262414324177884
0.0351117589 -0.184062302 -0.0001656197528917408
0.0295596197 -0.1693689971 -0.0001483368714887759
0.0244717393 -0.1545085012 -0.00013083458483396232
0.0198531598 -0.1394955962 -0.0001132116116206068
0.0157084204 -0.1243449001 -9.551924391495298e-05
0.01204162 -0.1090715974 -7.779448397566766e-05
0.0088563748 -0.0936906635 -6.000237509921902e-05
0.0061558299 -0.0782172306 -4.212655238940502e-05
0.0039426489 -0.0626666172 -2.448168944498008e-05
0.0022190181 -0.0470541603 -7.067281499947842e-06
0.000986636 -0.0313952601 1.0564287303380972e-05
0.00024672 -0.0157053805 2.8552309029377873e-05
0.0 1e-10 4.6369896255812285e-05
0.00024672 0.0157053807 6.440091109724804e-05
0.000986636 0.0313952603 8.299975793260323e-05
0.0022190181 0.0470541605 0.00010156174708689757
0.0039426489 0.0626666174 0.00012013239324741402
0.0061558299 0.0782172308 0.00013906879569726936
0.0088563748 0.0936906637 0.00015833356147273298
0.01204162 0.1090715976 0.0001775824583463738
0.0157084204 0.1243449004 0.00019670570756830444
0.0198531598 0.1394955964 0.0002155502787752825
0.0244717393 0.1545085014 0.00023394871729255293
0.0295596197 0.1693689973 0.0002517706121636168
0.0351117589 0.1840623022 0.0002689270752302547
0.0411226898 0.1985739023 0.0002854554006361254
0.0475864708 0.2128895969 0.0003014044709446287
0.0544967391 0.2269952 0.00031674814779594773
0.0618466586 0.240876794 0.0003314498439039998
0.0696289763 0.2545207144 0.0003457257174387454
0.0778360367 0.2679134012 0.0003596348002277566
0.0864597112 0.2810417117 0.00037314460633462027
0.0954915136 0.2938925923 0.00038589900472407734
0.1049225032 0.3064534963 0.0003981496518062136
0.1147433966 0.3187119962 0.00040983390596015246
0.1249445006 0.3306559027 0.00042105767147837536
0.1355157048 0.342273593 0.00043164079642334097
0.1464466006 0.3535534144 0.0004414035034328301
0.1577264965 0.3644843102 0.00045019383025231285
0.1693440974 0.375055492 0.0004579199874206602
0.1812880039 0.3852565886 0.0004645220534315736
0.1935465038 0.3950774969 0.00047009423263336125
0.2061073929 0.4045085014 0.00047494018822945294
0.2189583033 0.4135403038 0.00047909233792811645
0.2320865989 0.4221639932 0.00048215148762765364
0.2454793006 0.4303709866 0.00048367068091183935
0.2591232061 0.4381532968 0.0004832004640271184
0.2730047107 0.4455032946 0.000479916766639589
0.2871103883 0.4524134995 0.00047488775262570504
0.3014261127 0.4588772954 0.0004678018901068601
0.3159376979 0.4648881854 0.00045870855361749424
0.3306309879 0.4704403878 0.0004477725949353778
0.3454914987 0.4755282999 0.0004351105575598757
0.3605043888 0.4801469148 0.000420522608537241
0.3756551147 0.4842916132 0.0004036279720356986
0.3909283876 0.4879584015 0.0003843048290923523
0.4063093066 0.4911436142 0.00036306295219188517
0.4217827916 0.4938442112 0.0003393111099229129
0.437333405 0.4960573913 0.00031486516318587204
0.4529457986 0.4977810086 0.0002893210253896786
0.4686047137 0.4990133942 0.00026335957216634676
0.4842945933 0.4997532965 0.00023709260154914508
0.5 0.5000000001 0.00021137512516047202
0.5157054067 0.4997532965 0.0001868410286931521
0.5313953161 0.4990133942 0.0001643513040706264
0.5470541716 0.4977810086 0.00014493187246461883
0.562666595 0.4960573913 0.00012944737685382027
0.5782172084 0.4938442112 0.00011820936114228381
0.5936905742 0.4911436142 0.00011148796820100587
0.6090716124 0.4879584015 0.00010946297004710455
0.6243448853 0.4842916132 0.00011172234788174584
0.6394956112 0.4801469148 0.0001174460052101034
0.6545084715 0.4755282999 0.00012540544133890063
0.6693689823 0.4704403878 0.00013344795197738676
0.6840623021 0.4648881854 0.00013872749503969842
0.6985738873 0.4588772954 0.00013790228810974274
0.7128896713 0.4524134995 0.00012772512856997582
0.7269952297 0.4455032946 0.00010614051359372203
0.7408769131 0.4381532968 7.350808333898959e-05
0.7545207143 0.4303709866 3.39332133040574e-05
0.7679134011 0.4221639932 -3.405514419755327e-06
0.7810416818 0.4135403038 -2.354318248019632e-05
0.793892622 0.4045085014 -5.737087307007777e-06
0.806453526 0.3950774969 7.609561033467905e-05
0.8187119961 0.3852565886 0.0002526687923641263
0.8306558728 0.375055492 0.0005582228437593191
0.8422734737 0.3644843102 0.0010270321528113129
0.8535534143 0.3535534144 0.0016911632946511128
0.8644843102 0.342273593 0.0025786682101345514
0.8750556111 0.3306559027 0.0037102086431698303
0.8852565885 0.3187119962 0.00509693145352195
0.8950775266 0.3064534963 0.006738340515333899
0.9045084715 0.2938925923 0.008619115487072762
0.9135403037 0.2810417117 0.010708781693770833
0.9221640229 0.2679134012 0.012961084713371618
0.9303709865 0.2545207144 0.015313655259120432
0.9381533265 0.240876794 0.017687204688128354
0.9455031753 0.2269952 0.019985827270232258
0.9524134994 0.2128895969 0.022107502026146243
0.9588773251 0.1985739023 0.023949878448147974
0.9648882151 0.1840623022 0.0254148125930403
0.9704403877 0.1693689973 0.026410443695451518
0.9755281806 0.1545085014 0.02685369080905247
0.9801468253 0.1394955964 0.02668180196074906
0.9842916131 0.1243449004 0.025854357540745512
0.9879583716 0.1090715976 0.02435878915480095
0.9911435843 0.0936906637 0.02221025775737868
0.9938442111 0.0782172308 0.019446622317379182
0.996057272 0.0626666174 0.016129324610007094
0.9977809787 0.0470541605 0.012343407802049027
0.9990134239 0.0313952603 0.008190715099574239
0.9997532964 0.0157053807 0.003788407055087974
1.0 1e-10 -0.0007357020826549855
0.9997532964 -0.0157053805 -0.005248821121572159
14.81529999 2.346519947 -0.0002217677654
14.26580048 4.635260105 -5.864843238e-05
13.36509991 6.809860229 1.197740488e-05
12.13529968 8.81678009 6.26970783e-06
10.60659981 10.60659981 6.383362872e-06
8.81678009 12.13529968 7.031941098e-06
6.809860229 13.36509991 8.467644809e-06
4.635260105 14.26580048 9.581686836e-06
2.346519947 14.81529999 1.052053472e-05
0.0 15.0 1.098061124e-05
-2.346519947 14.81529999 1.077237325e-05
-4.635260105 14.26580048 8.57668872e-06
-6.809860229 13.36509991 7.200327561e-06
-8.81678009 12.13529968 5.427830178e-06
-10.60659981 10.60659981 4.387467108e-06
-12.13529968 8.81678009 3.193294214e-06
-13.36509991 6.809860229 2.469694639e-06
-14.26580048 4.635260105 1.782645127e-06
-14.81529999 2.346519947 5.766692746e-07
-15.0 0.0 2.090066593e-07
-14.81529999 -2.346519947 -6.135407511e-07
-14.26580048 -4.635260105 -1.707513446e-06
-13.36509991 -6.809860229 -2.364307302e-06
-12.13529968 -8.81678009 -3.23703845e-06
-10.60659981 -10.60659981 -4.859989394e-06
-8.81678009 -12.13529968 -6.287333497e-06
-6.809860229 -13.36509991 -8.112392636e-06
-4.635260105 -14.26580048 -9.560690852e-06
-2.346519947 -14.81529999 -1.010352848e-05
0.0 -15.0 -1.051953433e-05
2.346519947 -14.81529999 -1.008399601e-05
4.635260105 -14.26580048 -9.027513573e-06
6.809860229 -13.36509991 -8.594875269e-06
8.81678009 -12.13529968 -6.884899935e-06
10.60659981 -10.60659981 -4.260661884e-06
12.13529968 -8.81678009 -1.528309876e-06
13.36509991 -6.809860229 7.629206023e-06
14.26580048 -4.635260105 -2.221385631e-06
14.81529999 -2.346519947 0.0001114166125
15.0 0.0 2.205238217e-05
0.9690077676 0.2117653225 0.020570340032566695
1.003910586 0.1043551954 0.019578346690523583
1.014539759 -0.0080825792 -0.002559658376929394
0.2736310909 0.4620764848 0.00040709588367997956
0.8217460148 0.4016047399 0.0006977272817415277
0.9387682304 0.2688776463 0.01354589265086967
0.556465634 0.5114602182 0.00017967615768616982
0.8695565282 -0.3585181444 -0.0027748381066787587
0.2311502981 0.4387227894 0.0003979372408762713
0.8217475629 -0.4020864818 -0.0005981018789636022
0.7117370828 -0.4692890493 -0.00012907378729348122
0.1537054955 0.3805727065 0.00035776625435512965
1.003914658 -0.1043566397 -0.02059737348996583
0.9470144199 -0.255072902 -0.015655516098819513
1.013021329 -0.0403752253 -0.009786935453925078
0.9210369749 -0.2961080272 -0.009782887700510064
0.9963693275 -0.1357953328 -0.023175738143086537
0.6357647036 -0.4964757751 -8.368851224189143e-05
0.9813801608 0.1818986372 0.022615768792075174
0.880612968 0.3463312759 0.003896463080373784
0.4757549546 -0.5140030225 -0.00017347233791459651
0.3956517865 -0.5038670588 -0.00025682411734628124
0.0984371482 -0.3217121158 -0.00021949131399818383
0.4596228275 -0.5129857583 -0.00019185409225514621
0.6201089055 -0.5004728202 -7.772791415283989e-05
0.5564545978 -0.5115086143 -8.958504460511094e-05
0.6969014479 -0.475674655 -0.00012196646741661392
0.76885771 -0.4391874132 -0.00015602522687895352
0.1537052208 -0.3805723676 -0.0002612833647278809
0.3030885214 -0.4753833076 -0.0003000561932251858
0.3333266192 -0.4868086587 -0.00029260918681367487
0.2311496775 -0.4387223989 -0.0002936558901555919
0.5403627288 -0.5130203061 -0.00010195519452252388
0.4115295369 -0.50689712 -0.00024340006403795328
0.2592282036 -0.4547368231 -0.0002997754929949803
0.1910592834 -0.4114695254 -0.0002794505769233291
0.2882527736 -0.4689656146 -0.00030192171430930975
0.3486992761 -0.4918050301 -0.00028643103758638905
0.165831582 -0.3912601535 -0.0002678954854696408
0.2736301833 -0.4620761528 -0.00030193994646116745
0.3642195949 -0.4963227156 -0.0002785168959368728
0.2175005588 -0.4300630007 -0.00028934301520326666
0.1087423505 -0.334165096 -0.00022887056688045138
0.1304979962 -0.358071873 -0.0002461292709322674
0.0612873575 -0.268843173 -0.00017878222306733776
0.0790354299 -0.2958585335 -0.00019976309934700148
0.5724908585 -0.5094955591 -8.07223136342107e-05
0.1419270658 -0.3695020674 -0.0002540351736596072
0.0186867202 -0.1818729358 -0.00010660372503012994
0.0246346698 -0.1969026218 -0.00011930503557928962
0.0379383082 -0.2263615076 -0.00014401436446598304
0.318118047 -0.4813329394 -0.0002969651601891707
0.5884576606 -0.5069946613 -7.594547409672456e-05
0.0452760362 -0.2407636907 -0.000155989041101548
0.0699496647 -0.2824899407 -0.000189487922937652
0.178287045 -0.4015625327 -0.00027391321069984015
0.7549420201 -0.4473900235 -0.00014164146868052315
0.0082182801 -0.1512916666 -8.093234682434933e-05
0.6818721627 -0.4815931933 -0.00011260074268376868
-0.0003134647 -0.1201144902 -5.5127217609845375e-05
-0.0038371921 -0.1043395951 -4.222526558694123e-05
0.2450634953 -0.4469497296 -0.0002971139632109779
0.4274929254 -0.5094395049 -0.00022850902162010328
-0.0129429647 -0.0403694199 9.126257448862501e-06
-0.0093931102 -0.0724972996 -1.6797513995829225e-05
0.0885357575 -0.3089357209 -0.00021028338712737737
-0.0139557332 -0.0242374783 2.1758595181092105e-05
0.0132128002 -0.1666643471 -9.380594970789455e-05
-0.0139557333 0.0242375804 6.158336371763764e-05
-0.0068647303 -0.0884619704 -2.942493879769595e-05
0.1194328261 -0.346288998 -0.00023769166166586614
-0.0068647331 0.0884620865 0.00011644965513591538
0.2175011034 0.4300633969 0.00039260948008193464
-0.0114198576 0.056461309 8.86217882665151e-05
0.0037080572 0.1357701151 0.00015845111170479168
-0.003837194 0.1043397184 0.00013043540521250063
0.0037080526 -0.1357699739 -6.802687351791306e-05
0.0132128181 0.16666451 0.0001857836637322377
-0.0114198558 -0.0564612028 -3.8046091269706983e-06
0.0186867464 0.1818731102 0.00019892501995695533
0.0246347046 0.196902807 0.00021165393004176497
0.053056999 -0.254931582 -0.0001675261634179262
0.037938359 0.2263617138 0.000235905875286678
0.0612874298 0.2688434151 0.0002700479718537249
-0.0003134642 0.1201146219 0.00014447155464174244
0.0310556422 0.2117365089 0.00022399966461572607
0.1910596946 0.4114699067 0.00037998564061393625
0.0452760938 0.240763908 0.0002475973802379475
0.0790355266 0.2958588015 0.0002912784613735703
0.1304982054 0.3580721915 0.00034061893529725024
0.1087425052 0.3341653944 0.00032183436362226425
0.0530570635 0.2549318114 0.0002589127374004116
-0.0129429655 0.0403695235 7.483014256028618e-05
0.1658318958 0.3912605048 0.0003656140177993386
0.0885358713 0.3089360004 0.00030210440312711945
-0.0144623728 0.0080818689 4.825790256537005e-05
0.2450641967 0.4469501078 0.00040203520725005937
0.1194330066 0.3462893069 0.00033137786776309824
0.0699497475 0.2824901956 0.00028079789433599345
0.1782874033 0.4015628995 0.0003730016072853448
0.3181193951 0.4813329862 0.00040309215468792986
0.2882538072 0.4689658874 0.00040723367341458094
0.1419273056 0.3695023954 0.00034944743077951895
0.5080749627 -0.514533083 -0.0001352947344413248
0.3487010717 0.491804598 0.00039366318332552386
0.7825091392 -0.4305476135 -0.0001908119092883455
0.2592290009 0.4547371863 0.0004050233037934739
0.4115327564 0.5068938733 0.0003523462723812945
0.379879062 0.5003396856 0.00037691985644440484
0.3333281729 0.486808507 0.00039923989524454084
0.204136193 0.4209716918 0.0003865539025254966
0.0082182907 0.1512918184 0.00017226087003055848
0.4919175564 0.5144983041 0.00025807207095059764
0.4435345709 0.5114575053 0.0003185836338013906
0.3642216706 0.4963218851 0.0003862776903353071
0.0984372811 0.3217124048 0.00031183515204468576
0.5725031611 0.5094343209 0.00016455510861994663
0.5242395436 0.5139997221 0.00021661968716749427
0.3030896991 0.4753834894 0.0004057123125430634
0.90162608 -0.3220407299 -0.0063974153611688
0.4757607374 0.5139905284 0.0002787009680305201
0.6201250757 0.5003570234 0.00013964522788375254
0.5884712487 0.5069180558 0.0001526450864447297
0.5080825724 0.514510826 0.0002371673890953982
0.6513053443 0.4918259683 0.00014171133900575499
0.8581094608 0.3695403816 0.0021084470398643196
0.726383615 0.4621064957 0.00017319588621535036
0.6969215067 0.4754105672 0.0001616642046794502
0.9301085497 0.2825286463 0.011625517019897138
0.4274966641 0.5094348204 0.00033715652376567484
0.6666796512 0.4868317597 0.00014718926409361312
0.604349631 0.5038855546 0.00014423781978828779
0.681892072 0.4813635754 0.00015434290153591625
0.7958889103 0.4210074376 0.0003347437541818888
0.7688704733 0.4387569073 0.0002086872940903811
0.8089676061 0.4115063462 0.0004753398765405957
0.8342002341 0.3912983581 0.0010269252076431305
0.7407874987 0.4547686053 0.0001784505123328165
0.7549573743 0.4469879125 0.0001878394047357024
0.9115126989 0.3089726123 0.00804641087244959
0.8913016379 0.3342032918 0.005086950284145276
0.846325317 0.3806067519 0.0014888721803732704
0.9469957837 0.2549620611 0.015474642947920546
0.9868554885 0.1666880502 0.023021995206115514
0.2041357201 -0.4209713006 -0.000284588679539656
0.9621230346 0.2263918993 0.019065735969265758
0.7825188088 0.4300938287 0.00025239714732860777
0.9963631896 0.1357898714 0.022352055218572052
0.9754308031 0.1969300219 0.021777290288229383
0.9016049652 0.3217463211 0.006474859066794698
0.9115344078 -0.3092259519 -0.008006735182274414
0.9690213071 -0.2118112803 -0.020951449086726543
0.9918587956 -0.1513226037 -0.02367087840903105
1.006941944 -0.0884757571 -0.018536723055018328
0.9754426613 -0.1969624092 -0.022235463122317965
0.981390412 -0.1819207259 -0.02315742887092696
0.9387882639 -0.2690188241 -0.013665545008174362
0.9548002849 -0.2408804545 -0.017584229439024057
0.8913215321 -0.3345382645 -0.00498162955788212
0.031055599 -0.2117363133 -0.0001318378781262758
0.8806309831 -0.3467046501 -0.0037735105077884093
0.8342057067 -0.3917732564 -0.0009140062895268051
0.8581220523 -0.3699775913 -0.0019777466187323707
0.6666603188 -0.4870288521 -0.00010215508369543908
0.7263647713 -0.4624418431 -0.00013352777658212048
0.795882733 -0.4214781211 -0.0002618891510510618
0.5242308651 -0.5140288958 -0.00011745837361734623
0.6043347294 -0.5039802772 -7.49998667680489e-05
0.4919109178 -0.5145150927 -0.00015431626025334821
0.6512868842 -0.491993037 -9.211678928692114e-05
0.9210153051 0.2958947387 0.009775894275064265
0.9918514221 0.1513134574 0.022945620590487447
1.000391608 -0.120135402 -0.02215011601562569
0.8089652149 -0.411986598 -0.00038947810688096346
0.635782086 0.4963358598 0.00013896217908866172
0.9868642461 -0.166702568 -0.023652917031139167
1.009470334 -0.0725082552 -0.01600744990146689
1.014539508 0.0080834585 0.001194641952790074
0.930129649 -0.2827042118 -0.011686270164207653
0.9621383138 -0.2264552266 -0.01937587381093332
0.7407701034 -0.4551385304 -0.00013648456111937962
0.8463345165 -0.381066594 -0.0013651073664077468
0.3956545599 0.5038648837 0.0003655741520917216
1.000386566 0.1201323859 0.02122772525853077
0.7117568094 0.4689893947 0.0001680549748789427
0.954783283 0.2407955842 0.017340390153930477
0.869540982 0.3581101861 0.0029057669244515853
1.011495931 0.0564700491 0.01180923090950369
1.006938703 0.088475286 0.01742716718605977
1.01403326 0.0242416019 0.004906950348817728
1.009467825 0.072508402 0.014817494523458638
1.013020048 0.0403759433 0.00847669121441494
1.011497798 -0.0564695479 -0.013066685885895756
0.5403725557 0.5129825152 0.0001972354619698448
0.4596278504 0.5129765911 0.0002984664873581025
-0.009393113 0.0724974099 0.00010264917431661996
-0.0144623728 -0.0080817675 3.475768603866322e-05
0.379876664 -0.5003410793 -0.00026862500436003467
0.4435302301 -0.5114641177 -0.00021073311740780337
1.01403401 -0.0242407717 -0.006253403144717246
1.018679402 0.1159370147 0.014064196362742904
0.726247281 0.4808001162 0.00022888834923713575
0.4832979609 -0.5310521306 -0.00021846099208787037
1.031213142 0.0166938246 0.0019056158686207659
0.9095238769 -0.3390635775 -0.0060598380069613045
0.9487358055 0.2847731996 0.011024658703309452
0.4999716626 -0.5313381353 -0.00020583832229495794
0.4004428495 -0.5218646527 -0.00024616084087073636
0.6799476911 -0.5001789407 -0.00011215953675762502
0.2588242698 -0.4733269614 -0.00020292815370990397
0.632108165 -0.5147932743 -0.00011096010784729556
0.2153486941 -0.4485400929 -0.00018175261070898369
0.2295817167 -0.4572514082 -0.00018903436986877215
0.1877621015 -0.4297547346 -0.00016829556296793502
0.0515119788 -0.2846203579 -9.086221558800983e-05
0.0427846581 -0.2703989864 -8.425126995870863e-05
0.6482043358 -0.5104103784 -0.00010725868005836449
0.148699534 -0.3984743322 -0.0001475530846602527
-0.0183680455 -0.1158663612 -1.581149698326456e-05
-0.030107949 0.033349437 4.609750093467627e-05
-0.0246062144 0.0830893571 6.888697110093815e-05
0.0002443636 0.1799216254 0.00011414782500041715
0.1363593122 0.3872272072 0.00021875930732837695
0.0061326408 0.195533225 0.00012148991812110585
-0.0144720292 0.1320959441 9.15896217921694e-05
0.2588261854 0.4733277851 0.0002927522343889391
0.3044341856 0.4939458049 0.0003169837146878504
0.4004494444 0.521861494 0.0003450777484790904
0.4168753131 0.5247467785 0.0003445505029723503
0.1243919088 0.3756070133 0.00021141298587600693
0.5500031734 0.5289681657 0.0002650109322416168
0.5831070079 0.5248014067 0.00023272053657470357
0.6641956487 0.505346328 0.00018317476703290717
0.6159149086 0.5185635053 0.00020424048644825457
0.88739516 0.3637999355 0.004085580033395658
0.7986886139 0.4395070088 0.0006712704451928414
0.8257028406 0.4199075511 0.0011686547418093675
1.027282061 0.0666134879 0.008907357572443899
0.8123474498 0.4299114273 0.0008847328061763082
0.9395931665 -0.2989267878 -0.009822052665549998
0.7109957398 -0.4879571013 -0.00013721786425181272
0.8257012793 -0.420374014 -0.0010804876157140565
0.7262080504 -0.4811177384 -0.00016134715325580567
0.2890105965 -0.4875671601 -0.0002160520796878479
0.3044313655 -0.493945312 -0.00022297074666335903
0.8986870809 -0.3518015897 -0.004981922365821415
0.8874277088 -0.364181365 -0.004024020680621507
0.4999869774 0.5313153612 0.00030812804508694586
0.9657506256 -0.2561334228 -0.01369410108594136
1.018689733 -0.1159401052 -0.014966288461202017
1.02206595 -0.0995885087 -0.013595028549086683
0.9808762274 0.2262856247 0.015401344867378567
0.7412386932 0.4734603275 0.0002656205884647017
0.4833113911 0.5310348519 0.0003209591519868528
0.5665921642 0.5271330097 0.0002486378265746346
0.5333649508 0.5302864297 0.0002808221887289873
0.2153499995 0.4485409857 0.00026724372830660287
0.1127813141 0.3636229928 0.00020419556125567812
0.0427848101 0.2703995167 0.0001561700413957104
-0.0301079496 -0.0333492037 1.850850701408044e-05
-0.0287985539 -0.0499880773 1.1361879495836932e-05
1.014780267 0.1321766926 0.015198335988279925
0.2440802976 0.4655162987 0.0002842536703634435
0.9574485131 0.2705325167 0.012280497226237072
0.229583199 0.4572522938 0.00027562922620649744
0.2014008009 0.4393618108 0.0002592012549092332
0.987784297 -0.2111211182 -0.01651860547369512
0.6641568931 -0.5055345369 -0.0001075069207533419
1.000042866 0.1800262046 0.01665896751003121
0.9395500827 0.2987282566 0.009735058000185658
0.5499810417 -0.5290166369 -0.00016744133027798286
0.0907026566 -0.3386026267 -0.00011654514184977066
0.4666286488 -0.5302651912 -0.00022973696079342174
0.6955776267 -0.4943201613 -0.00012161197320622284
0.7704833119 -0.4578150761 -0.00032814483975933135
0.1015470374 -0.3512844151 -0.00012255015071419711
0.3200430378 -0.499840431 -0.0002302287719487539
0.2440786144 -0.4655154314 -0.00019636799705950725
0.273796722 -0.4806826337 -0.00020843546779386601
0.3358293327 -0.5052501465 -0.00023577671433196168
0.3517681416 -0.510174191 -0.00024008721329046162
0.2013996576 -0.4393609271 -0.00017493505892925837
0.1363587297 -0.387226455 -0.0001411483481514736
0.1127808753 -0.3636222862 -0.0001287404926528929
0.0606776159 -0.2985630175 -9.718500998930069e-05
0.5665675552 -0.5271938968 -0.00015327607135069005
0.1243914014 -0.3756062851 -0.00013495105904690052
0.0061325803 -0.1955328256 -5.034997840563937e-05
0.0125193565 -0.2109531881 -5.7249032097229924e-05
0.0193914716 -0.226157364 -6.405780756665522e-05
0.5830798795 -0.5248769827 -0.0001397452018040389
0.0267321165 -0.2411409283 -7.077590027022504e-05
0.1613943512 -0.409304201 -0.00015433421374556888
0.1744199423 -0.4197335523 -0.00016137987013951915
0.4168676799 -0.524751481 -0.0002451212195759625
-0.0269597857 -0.0665712719 4.439358225034884e-06
0.0702711079 -0.3122146878 -0.00010341551817261152
0.0802738321 -0.3255629729 -0.00010947906777575289
-0.0051550028 -0.1641341851 -3.657336076250475e-05
0.0002443194 -0.1799212512 -4.34564688726255e-05
-0.0246062115 -0.083089101 -2.2551976516689554e-06
-0.0217423079 -0.0995261644 -9.014853100531087e-06
-0.0269597878 0.0665715173 6.140255800589876e-05
-0.0217423097 0.0995264341 7.644057707384064e-05
-0.0183680437 0.1158666472 8.398176029296607e-05
-0.0144720374 -0.1320956392 -2.271775901986975e-05
-0.0100623919 -0.1481873029 -2.9665470832478807e-05
0.0345244638 -0.2558887118 -7.75278681113406e-05
0.0267322314 0.2411414057 0.00014255087332394958
0.0193915685 0.2261578151 0.0001356844502553231
0.0125194348 0.210953613 0.0001287143704626799
0.187763096 0.4297555984 0.0002511637431630992
0.1744208065 0.4197343887 0.0002428239078789765
0.0345245968 0.2558892157 0.0001494034361574116
0.0702713426 0.3122152993 0.0001763863004879962
0.0907029783 0.3386032877 0.00019054021051473358
0.1015474138 0.3512850996 0.00019719352242750232
-0.0287985544 0.0499883153 5.3778084669200456e-05
0.1613951071 0.4093050063 0.0002343798747296219
0.1487001987 0.3984751104 0.00022634165394724154
0.080274107 0.3255636097 0.00018298256437079136
-0.030885247 0.01668274 3.920512021295358e-05
0.0606778169 0.2985636015 0.0001696492037228589
0.0515121526 0.2846209145 0.00016295264959909073
0.2890130686 0.4875678106 0.0003089854061740782
0.2737988981 0.4806833853 0.0003001426392845105
0.7847166872 -0.4491081148 -0.00043798604743595644
0.384106843 0.5184810149 0.0003437239393481936
0.3358330649 0.5052500931 0.00033093153063964986
0.320046275 0.4998407037 0.000324726848948291
-0.0051549731 0.1641345347 0.00010675646021177099
-0.0100623743 0.1481876292 9.922278619133029e-05
0.3678771323 0.5145935988 0.0003405976853363968
0.351772442 0.5101736754 0.0003362744343154145
0.5995730956 0.5219620913 0.00021787121641937343
0.5166933521 0.5310864313 0.0002953717523205522
0.875769317 0.3757709104 0.003268974934737163
0.8637798862 0.3873861686 0.0025764435273695294
0.7110362849 0.4876730829 0.00020535147229977686
0.6956184609 0.494069482 0.0001913756923735228
0.4334109136 0.5271337096 0.0003430271702786897
0.6799878488 0.4999604645 0.00018451618541715994
0.7847396241 0.4486755827 0.0005138182089930189
0.7705119249 0.4574059438 0.00040046995744599497
0.8514367614 0.3986248773 0.0020021399949612046
0.8387498968 0.4094742497 0.0015374803300628203
0.7559943693 0.4656697504 0.00032041124206229126
0.9299405207 0.3123714322 0.008460271044272931
0.9199164166 0.32572031 0.007231027882879169
0.9094834895 0.3387523879 0.006079073821514637
0.8986500254 0.3514538415 0.005025055873731431
0.9941491141 0.195645782 0.016513634356387624
0.9877571968 0.2110751484 0.016083632631385954
0.9199589027 -0.3259935264 -0.007242448786558586
0.9299838647 -0.3126066565 -0.00850800593155417
1.010379215 -0.1482866579 -0.016761953220437387
0.9941730062 -0.1956789021 -0.017019084954284492
0.9487775677 -0.284937313 -0.011153715491977847
0.9574881005 -0.2706654113 -0.012459157982372637
0.8387561351 -0.4099376062 -0.0014459972034280835